<?xml version="1.0" encoding="iso-8859-1"?>
<configuration xmlns:xsi="http://www.w3.org/2001/XMLSchema-instance"
 xsi:noNamespaceSchemaLocation="http://sumo.sf.net/xsd/sumoConfiguration.xsd">
    <input>
        <net-file value="D:\Compartido\Proyectos\SUMO\SNResumido\models\nets\SNResumido.net.xml"/>
        <route-files value="D:\Compartido\Proyectos\SUMO\SNResumido\models\routes\SNResumido.rou.xml"/>
    </input>
    <output>
  	<tripinfo-output value="D:\Compartido\Proyectos\SUMO\SNResumido\output\SNResumido.trip.xml"/>
	<vehroute-output value="D:\Compartido\Proyectos\SUMO\SNResumido\output\SNResumido.vro.xml"/>
	<vehroute-output.exit-times value="True"/>
    </output>	
    <time>
        <begin value="0"/>
        <end value="6000"/>
    </time>
    <time-to-teleport value="-1"/>
</configuration>